/*--------------------------------*- C++ -*----------------------------------*\
| =========                 |                                                 |
| \\      /  F ield         | OpenFOAM: The Open Source CFD Toolbox           |
|  \\    /   O peration     | Version:  v1706                                 |
|   \\  /    A nd           | Web:      www.OpenFOAM.com                      |
|    \\/     M anipulation  |                                                 |
\*---------------------------------------------------------------------------*/
FoamFile
{
    version     2.0;
    format      ascii;
    class       volVectorField;
    location    "0";
    object      U;
}
// * * * * * * * * * * * * * * * * * * * * * * * * * * * * * * * * * * * * * //

dimensions      [0 1 -1 0 0 0 0];


internalField   nonuniform List<vector> 
4096
(
(0.00545555 0.000524922 -0.0135398)
(0.00394471 0.0101048 -0.0135083)
(0.0128751 -0.00611809 -0.00886135)
(0.0126149 -0.0184447 -0.0161924)
(0.0148709 -0.0267829 -0.00855942)
(0.00962619 -0.00588087 -0.0146561)
(-0.00709785 -0.00287333 0.0156187)
(-0.0135053 -0.00268575 0.0212491)
(-0.00520752 0.0347182 -0.00697163)
(-0.00291303 0.0126413 0.0265827)
(0.00351457 0.0188304 -0.0161281)
(0.00735275 0.00933341 -0.0202997)
(0.00351272 -0.000146666 -0.010253)
(-0.0140169 0.00693363 -0.0103387)
(0.00993498 -0.00328992 -0.0174466)
(0.0123419 0.00369066 -0.0246868)
(0.0180745 -0.010514 -0.00605254)
(0.0124223 0.0199726 -0.0365324)
(0.0055495 0.0157464 -0.00857209)
(0.0259052 0.00192239 -0.0173167)
(0.0135273 -0.00304856 -0.0352321)
(0.0201766 0.00572081 -0.0191835)
(0.0017004 -0.00784717 0.0179536)
(0.00237296 -0.00392626 0.00313511)
(0.00788923 0.0131873 -0.0253203)
(-0.00561948 -0.0184465 0.0292114)
(0.00571455 -0.0186663 0.0121696)
(0.0139251 -0.0146457 -0.00255215)
(0.0122318 -0.0155699 0.00357858)
(-0.00421801 0.00490674 -0.0160876)
(0.017494 0.00119064 -0.0187017)
(0.022266 -0.00280125 -0.0367362)
(0.00799935 -0.0173721 0.00181498)
(0.0117814 -0.00618187 -0.0322114)
(-0.0138607 0.00475022 -0.00514724)
(0.0220192 -0.0103553 -0.00183151)
(0.000877327 0.00309516 -0.0292743)
(-0.00630289 0.0134968 -0.0141341)
(0.00991675 0.00638961 -0.00709009)
(0.0206715 -0.0103287 -0.00308005)
(0.00477203 0.00769502 -0.0359027)
(-0.0130112 -0.00217386 0.00497293)
(-0.0108096 0.00980527 0.0168216)
(0.00724439 0.0126259 -0.0204014)
(0.0105268 -0.000334231 0.00568853)
(-0.0094744 0.0150257 0.00193259)
(0.0063839 0.00285214 -0.0113465)
(0.0181352 -0.00105004 -0.0420687)
(-0.0201988 -0.0196995 0.0279668)
(-0.00598225 -0.0111016 0.00764623)
(-0.0345899 0.0141033 0.00732745)
(0.00905803 0.00059003 -0.00167476)
(0.00146849 0.0155013 -0.0208067)
(-0.0135516 0.00860287 -0.013127)
(0.0107285 0.00471115 -0.00617943)
(0.0279732 -0.0207396 0.0077655)
(0.00936012 0.00506001 -0.0233633)
(-0.0185028 -0.00112081 0.0170111)
(-0.011908 -0.00470351 0.0341498)
(0.0016025 -0.00486034 -0.0153585)
(0.00135497 -0.00681254 0.0180284)
(-0.0243179 0.0182566 0.0126844)
(-0.0108949 -0.00212558 0.00789949)
(-0.00360926 -0.00207726 -0.0155149)
(-0.0313626 -0.00809355 0.0321649)
(-0.00554163 -0.00887128 0.0115672)
(-0.0231778 0.00141865 0.0289631)
(0.00675204 0.00617562 -0.0132835)
(0.00466096 0.0175192 -0.0290908)
(-0.0071238 -0.00795812 0.00259083)
(-0.0010429 -0.0118007 0.00821676)
(0.00588664 -0.0210994 0.0203178)
(0.0227522 -0.00802881 -0.0216221)
(0.000110028 0.0291778 -0.0152904)
(-0.00222886 0.000926957 0.0149273)
(-0.000558499 0.0130195 -0.021486)
(-0.00292393 0.00544577 0.031358)
(-0.0167266 0.0116584 0.0100808)
(-0.00725175 0.00400316 -0.000964621)
(-0.00198736 -0.00655857 -0.00563671)
(-0.0162225 -0.0108424 0.0273688)
(0.00411838 -0.0232817 -2.17769e-05)
(-0.00969318 -0.00161261 0.00543556)
(0.00454774 0.0305738 -0.0307923)
(0.00102316 0.0174346 -0.0119195)
(0.00435556 -0.00602217 -0.0139872)
(0.00127916 -0.0148999 0.00220779)
(0.00828639 -0.00768804 0.0218845)
(0.0547844 -0.0182009 -0.0393854)
(0.0422799 -0.0156501 -0.00893946)
(0.0213246 -0.0170582 0.0249535)
(0.00469736 0.0050643 -0.000878708)
(0.0173085 0.00624342 0.00941537)
(0.00553575 0.00671486 0.000240391)
(0.00593194 -0.0107614 0.0156266)
(0.0157256 -0.0176209 0.00154858)
(-0.0253835 -0.0012316 0.0129977)
(-0.0147464 -0.000434891 -0.0115301)
(-0.023059 0.0113944 0.000523934)
(-0.00840559 0.0128351 -0.0121152)
(-0.0205596 -0.00586627 0.0259998)
(-0.0145205 -0.00251032 -0.0138494)
(-0.0204877 -0.006032 0.00463715)
(-0.018196 -0.0115198 0.0148892)
(0.00819555 -0.00689074 -0.00700732)
(0.0154553 -0.000170508 -0.00983014)
(0.0151796 -0.00122487 0.0130552)
(-0.00564795 0.0181122 -0.0206383)
(0.0235726 0.00607829 -0.00287072)
(0.0236635 0.00463731 -0.0248822)
(0.0335286 -0.0134845 -0.00869489)
(0.00936821 -0.0237814 0.00117155)
(-0.00949581 0.0123113 0.0146579)
(-0.00678167 -0.000792346 0.00282897)
(-0.027616 0.0178186 0.0222311)
(-0.00268422 0.00127616 -0.00281183)
(-0.0260703 -0.0187152 0.0461004)
(-0.0167353 -0.00944053 -0.0031031)
(-0.00870284 -0.0107226 0.00612087)
(-0.00734919 -0.00671398 -0.0059111)
(-0.012888 -0.00965077 0.0153689)
(0.0152685 0.00656443 -0.0288271)
(0.0119513 0.00438154 0.00137821)
(-0.0125716 0.021466 -0.0131808)
(0.00796726 0.0118581 -0.00608391)
(0.0105773 -0.00163774 -0.0371824)
(0.0247869 -0.0039955 -0.0189699)
(0.00676364 0.00212401 -8.51473e-05)
(-0.00394976 0.0035306 0.0349141)
(0.0141911 -0.00461112 0.0021204)
(-0.013771 0.0186507 0.00391912)
(0.00158167 -0.00893413 0.00180148)
(-0.0186291 -0.0101153 0.032512)
(-0.0109776 -0.00388342 -0.00758136)
(0.00620945 -0.0286157 0.0113384)
(0.0227696 -0.0432341 0.0173852)
(5.79287e-05 -0.0295398 0.0139753)
(0.0159349 -0.0179272 -0.00917832)
(0.0107724 0.00683644 -0.000873829)
(-0.0139547 0.00396435 -0.0101923)
(-0.00131673 0.0054106 0.0124969)
(0.00270508 0.0349246 -0.0410218)
(0.024619 0.00708764 -0.00902863)
(0.0193842 0.010599 -0.0149954)
(-0.0237671 0.0220291 0.0195064)
(0.00331487 0.00674112 -0.00751069)
(-0.0031223 0.0236033 -0.0180042)
(-0.00698272 -0.00604009 0.00617173)
(-0.0169113 0.000637484 0.0191323)
(-0.0057961 0.00895208 0.0110058)
(-0.0135118 -0.0189253 0.0329593)
(0.00322575 -0.00529519 0.0147111)
(-0.00854287 0.00201244 -0.0103535)
(0.00457915 0.00511581 -0.0138334)
(0.00893364 0.00963234 -0.000127579)
(-0.0100515 0.0192335 -0.0233104)
(-0.00658282 0.0280048 0.00702719)
(-0.00706551 0.0216369 -0.00728028)
(0.0151357 -0.00403225 -0.00389716)
(0.0140569 0.00462447 -0.0265561)
(-0.021469 0.0275699 -0.0052702)
(-0.00551801 0.0171989 -0.0204944)
(-0.0116765 0.0122657 -0.00526151)
(-0.0230453 -0.0117285 0.0180452)
(-0.0300482 0.0127822 0.0193589)
(-0.0202541 0.0117324 0.00695585)
(-0.0328664 -0.0179037 0.0698777)
(-0.0177247 0.00485768 0.0134049)
(-0.0307566 0.000333194 -0.010371)
(-0.0273934 -0.00432802 -0.000260909)
(0.00360598 0.0147701 -0.0257831)
(-0.0125389 -0.00177775 0.0126997)
(-0.0250499 -0.00535412 0.0370268)
(-0.028146 0.0166807 0.00860358)
(0.00226095 0.00107823 -0.00194869)
(0.0070529 -0.000198341 -0.00893387)
(-0.00254382 0.0202085 -0.00727766)
(0.00705152 -0.0070949 0.0104497)
(-0.00214683 0.00851158 0.000255726)
(-0.0119578 -0.00895054 0.00997218)
(-0.0169734 0.0108943 0.0133133)
(-0.0338272 0.00260063 0.0221392)
(-0.0168316 -0.00149253 0.0338926)
(0.004963 0.0251117 -0.0115922)
(0.00475541 0.0258836 -0.0299812)
(-0.0140187 0.0118776 -0.0140116)
(0.0296233 0.00508083 -0.032977)
(0.0265282 -0.0133395 0.00967886)
(0.00519453 0.014825 0.00630421)
(-0.0219373 0.0212013 -0.00298981)
(-0.00852012 -2.94403e-05 0.00413085)
(0.00552766 -0.0128891 0.0064643)
(0.00262023 0.0115598 -0.0161585)
(0.00129519 -0.00194089 0.0100243)
(-0.0125432 0.00356895 -0.00142852)
(-0.0154446 -0.00211406 -0.0101699)
(-0.00728055 0.0167142 0.000918128)
(-0.0338717 0.0074111 0.0162618)
(-0.00536245 -0.00947267 0.0294413)
(0.0108101 0.00732776 -0.0117818)
(0.0261476 0.00201199 -0.0247753)
(0.00958917 -0.0110852 -0.0211045)
(0.0274165 -0.0452303 0.00513024)
(0.0170534 -0.0318498 0.00409145)
(0.00489561 0.00446743 -0.0180885)
(-0.0150169 0.0133873 0.020923)
(-0.00638531 -0.00504476 0.0022122)
(0.00119878 -0.00744581 0.000903358)
(0.00763114 0.0198805 -0.033407)
(0.000803289 0.0103289 0.00901516)
(-0.0126155 0.0177025 0.0180915)
(-0.0115176 0.0129259 -0.00479749)
(-0.00891288 0.00273967 -0.00364034)
(-0.0357296 0.0139122 0.0100524)
(-0.0133296 0.00631889 0.00384896)
(-0.00929595 0.0152501 -0.00446649)
(0.0142691 -0.012143 0.0084227)
(-0.00321433 -0.0150355 0.0066957)
(0.0145277 -0.0133141 0.00357775)
(0.0026473 0.0149944 -0.0148385)
(-0.00519524 0.014229 -0.0256212)
(-0.0107835 0.0256378 -0.00233943)
(0.00317004 -0.00170099 -0.0200066)
(-0.00304283 0.00079466 0.00466428)
(0.00987846 -0.00293341 -0.00244982)
(-0.000379874 0.00223513 0.0181342)
(-0.0069184 0.0221281 0.0151572)
(-0.00195548 0.0193547 -0.0194433)
(0.00376522 -0.00573322 -0.00798814)
(-0.00438062 -0.00189323 0.00294515)
(0.00324333 0.00846629 0.00943817)
(-0.00193656 0.00149899 0.0130803)
(0.0152279 0.00243355 -0.0226535)
(0.00465332 -0.00331988 0.00992864)
(0.00611599 -0.00033605 -0.00072326)
(0.00565133 0.0102586 -0.0227381)
(-0.00454564 0.0222816 -0.0235587)
(-0.0122664 0.0201123 -0.00927736)
(0.00529057 -0.00839713 -0.0281574)
(-0.000451706 -0.00091815 -0.0251794)
(0.0123249 0.000743559 -0.0150038)
(0.0128739 0.00092168 -1.6973e-05)
(0.0112523 0.0131726 0.00174304)
(-0.00316293 0.00359797 -0.00502949)
(-0.00924453 -0.00421869 -0.00429787)
(-0.00928716 -0.000532621 0.00402588)
(-0.009714 -0.000914605 0.0329497)
(-0.0164471 -0.00220529 0.0357589)
(-0.00197228 0.0295349 -0.0220442)
(0.00909797 -0.0041522 0.0308416)
(0.00298294 0.0105584 -0.00622246)
(0.00210872 0.0068804 -0.00940116)
(-0.00809855 0.0225043 -0.0170817)
(-0.0136319 0.0106942 -0.00306988)
(-0.004737 -0.00384513 -0.0179445)
(-0.00599611 0.00754396 -0.0126319)
(0.00759826 0.0117117 -0.01835)
(0.00711877 -0.00061395 0.00127291)
(0.0121302 -0.0108637 -0.000679988)
(0.0203261 -0.0232815 -0.013184)
(0.00114233 -0.0219492 0.0144632)
(-0.00214089 -0.0140134 0.0190113)
(-0.00846883 0.000331251 0.0179464)
(0.0151356 -0.0135531 0.00791504)
(-0.0146261 0.0218031 0.00310012)
(-0.0148542 0.0100009 0.0252154)
(-0.0103157 0.0214202 -0.0162797)
(-0.00981356 0.0193689 -0.0127164)
(0.0185184 -0.0151826 0.0124353)
(-0.00255188 0.00581296 -0.0077747)
(0.0026692 0.00616918 -0.037065)
(-0.00228132 0.00612544 -0.00939355)
(0.0247511 -0.00816333 0.00235388)
(0.0176685 0.00396764 -0.0157473)
(-0.00241109 0.01876 -0.0108604)
(0.0240646 0.00678354 -0.028676)
(-0.00387385 0.00675169 -0.0195375)
(0.00528812 0.017367 0.00468536)
(0.00159175 0.00719774 0.0202116)
(0.00665161 0.00588331 0.00152111)
(-0.00943755 0.021262 -0.0143996)
(-0.0205309 0.00264119 0.0187426)
(-0.00319363 0.00025412 0.000575425)
(-0.00260527 -0.00631896 -0.000677891)
(0.02816 -0.0211345 0.0095434)
(0.0115757 0.0168379 -0.0342057)
(0.0230713 0.016648 -0.0429211)
(0.0174536 0.000227422 -0.0232445)
(0.0113559 0.00811397 -0.00988666)
(0.0244821 0.00325843 -0.032271)
(-0.0053936 0.0144255 -0.0174445)
(0.0262125 -0.0034607 -0.0179625)
(-0.000847105 -0.00609267 -0.0157726)
(-0.0018477 0.0177411 -0.0121851)
(0.0263569 0.0174119 -0.0262214)
(0.0124668 -0.000372781 0.0146077)
(-0.0169821 0.0219515 -0.0201437)
(-0.040668 0.0205443 0.00643361)
(-0.0287656 0.0274697 0.0203905)
(-0.0209389 0.0306874 -0.0178147)
(0.0101467 -0.00059165 0.00376224)
(-0.010538 0.0235508 -0.0161962)
(0.00402235 0.0159457 -0.028357)
(0.00721947 0.00319349 -0.0411845)
(-0.00499961 -0.00167563 0.00308741)
(0.0122119 -0.00293117 -0.00599377)
(-0.011951 0.0119287 -0.0122722)
(0.0136621 -0.00152938 -0.013629)
(0.0102601 0.00839882 -0.0177377)
(0.000486848 0.016206 -0.0347942)
(0.0301231 0.0110209 -0.0364909)
(0.0138884 -0.0106628 0.0200841)
(-0.0158054 0.00828146 -0.00549464)
(-0.0411041 -0.00231485 0.0179497)
(-0.0140696 -0.00301124 0.0333177)
(-0.0173552 0.0148298 -0.0073883)
(0.00334158 0.00820446 0.00845516)
(-0.012947 0.0273885 -0.00748612)
(0.0014331 -0.00158943 -0.00179712)
(0.00505098 0.00299594 -0.0240341)
(-0.0184831 0.00537992 0.0116415)
(0.00411269 0.000711792 -0.00632251)
(0.00104355 -0.000384569 0.00957043)
(0.0171588 0.00915472 -0.0124378)
(0.021167 0.0252769 -0.035619)
(0.00114523 0.00127949 -0.00490652)
(0.0154755 -0.00263591 -0.0163688)
(-0.0017663 0.000644025 0.0235562)
(-0.011667 0.00586284 -0.0101026)
(-0.0266141 0.0259027 -0.00741196)
(-0.0123212 0.00833131 0.00779729)
(-0.0253679 0.0318682 -0.0113868)
(-0.0196794 0.0145575 0.022409)
(-0.0195348 0.0061455 0.0117893)
(-0.000660126 0.00268044 -0.000972882)
(0.000879429 -0.00599594 -0.00210541)
(-0.00560363 -0.00892522 0.0211739)
(0.0106236 -0.0249505 -0.00610614)
(0.0109719 -0.0195029 -0.0023567)
(0.0164253 0.0209078 -0.0198177)
(0.0253709 0.0207224 -0.0167425)
(0.0122579 0.00127065 -0.00956265)
(0.0197702 -0.00663682 -0.0266142)
(0.0137334 -0.000464305 0.00665733)
(0.00115507 0.00149781 -0.0225308)
(-0.00548985 -0.0149643 0.00450226)
(0.00262383 -0.0139709 0.0111251)
(-0.00452015 0.0122137 0.00702602)
(-0.00255435 0.00689276 0.0101365)
(-0.0162991 -0.000427114 0.0231443)
(0.00155267 -0.0120175 0.00126512)
(0.0134679 -0.0121335 -0.00215668)
(-0.00633472 -0.00432191 0.0164583)
(-0.00179567 0.000476943 -0.00998372)
(0.000107209 -0.0073887 -0.00112547)
(0.0107469 0.0120224 -0.0158495)
(0.0175236 0.00494089 0.00505123)
(-0.00194365 0.0172858 -0.0105826)
(-0.00108922 0.0146517 -0.0173165)
(8.34917e-05 -0.00487654 -0.000586869)
(-0.0290211 0.0132077 0.0102455)
(-0.0136016 0.00597747 -0.00212831)
(0.0145085 -0.00826741 -0.00182901)
(0.00336979 0.00523001 0.000986607)
(0.00691525 0.00705774 -0.00910169)
(-0.00717301 -0.000866751 0.00259209)
(0.0125025 -0.0140981 -0.0131712)
(0.00523674 -0.0266626 0.0131098)
(-0.00935319 0.0139181 0.012598)
(-0.0232608 0.00487489 0.00106818)
(-0.0172285 0.00528082 0.0160124)
(0.0111021 0.00197198 -0.0152524)
(0.0101825 -0.00269851 0.0139784)
(0.00558911 -0.00644659 -0.00820247)
(0.0280758 -0.018004 -0.0113645)
(0.0171527 -0.0171239 -0.00444136)
(-0.0395134 0.00608461 0.0340712)
(-0.0144041 0.0243948 -0.0190765)
(0.00445787 0.0068037 -0.00126493)
(0.00339127 0.00147633 0.0155972)
(0.00465097 0.00393264 -0.00173203)
(-0.0205979 -0.00358986 -0.00457296)
(-0.00101477 0.00365233 -0.0166836)
(-0.00835237 -0.00210989 0.0092805)
(-0.000377714 0.0138818 0.0186352)
(-0.0111171 0.00315154 0.00825229)
(-0.010722 0.00405636 0.00981806)
(0.00823193 -0.00270508 -0.0145134)
(0.00959096 -0.00539393 0.0117584)
(0.00844589 0.00071728 -0.017627)
(0.0474073 -0.020472 -0.0240708)
(0.0371062 -0.0456601 0.0155324)
(-0.0152079 -0.0267743 0.0389055)
(-0.0106809 -0.00321987 0.00271702)
(0.00543313 -0.00188185 0.00716364)
(-0.00345778 -0.0165853 0.0147242)
(0.000553521 -0.00538745 0.0101199)
(-0.0187772 0.032229 -0.0259576)
(-0.00736933 0.0235343 -0.0160324)
(-0.00295011 0.00849758 -0.00947189)
(-0.00196191 0.0166293 0.0183724)
(-0.0138169 0.00602852 0.0118797)
(-0.00303741 0.00983295 -0.00358496)
(-0.0028837 0.00235163 -0.00380651)
(-0.00725327 0.0116794 0.0182321)
(-0.00471611 0.0143156 0.0131206)
(0.0251976 -0.0113592 0.00279873)
(0.0264966 -0.01737 0.0210771)
(-0.00795208 -0.0116689 0.0332985)
(-0.0196161 0.00587218 0.0119382)
(0.00741042 -0.00358843 0.0172108)
(-0.00244881 -0.00483003 -0.00237095)
(-0.00472636 0.0152402 0.0014443)
(-0.0112892 0.0146808 -0.000906742)
(-0.00190181 0.00968776 0.002639)
(0.00932711 0.0037986 -0.014448)
(0.00836373 0.0133406 0.00177125)
(-0.015591 0.0136371 0.00433391)
(-0.0184914 0.0129688 0.0109804)
(-0.0180742 -0.00299195 0.00896928)
(-0.031075 0.0175531 0.0358788)
(-0.0305692 0.0282884 0.0204601)
(-0.00999716 -0.00966039 0.0597425)
(0.000846658 -0.0133857 0.0257182)
(-0.0257327 -0.0190415 0.043926)
(-0.032948 0.00425682 0.0179445)
(-0.00129854 0.0135562 -0.00970067)
(-0.0221187 -0.0003908 0.0279381)
(-0.0354632 0.00338316 0.0239108)
(-0.0329067 0.0177969 0.00612096)
(-0.0118141 0.018556 0.00445516)
(0.00778707 0.00388343 -0.00384912)
(0.0170715 0.0118341 -0.0135411)
(-0.0013075 -0.00191787 0.0202431)
(-0.011691 0.00379292 0.00930924)
(-0.013535 -0.0141874 0.00790883)
(-0.0151051 -0.00245966 0.0244382)
(-0.0203784 0.000634362 0.0183535)
(0.018102 -0.0117917 0.0274051)
(0.0189512 0.0083056 -0.00133288)
(-0.00223298 0.00366108 0.000476858)
(-0.0268677 0.0146659 -0.00510314)
(0.00664845 0.0152946 -0.0237201)
(-0.000601829 -0.00949563 0.0275204)
(-0.0138866 -0.00361743 0.012698)
(-0.0278779 -0.00767284 0.00362134)
(-0.0265571 0.00341181 0.00275645)
(-0.0122072 -0.00566433 0.00691146)
(0.0157354 0.00456345 -0.0215376)
(-0.00933738 -0.00529643 0.023893)
(-0.0254781 -0.000771233 0.00782725)
(-0.0173358 -0.000934042 -0.0170261)
(0.00114824 0.0178482 -0.0142626)
(-0.0139851 0.000972682 0.0057916)
(0.0329252 -0.0209178 0.0172517)
(0.0388211 -0.00142421 -0.00805412)
(0.0262436 -0.00370741 -0.010104)
(0.00970592 -0.0205266 -0.00802438)
(0.0098838 -0.0421203 0.0241064)
(-0.00639942 -0.0230672 0.0373746)
(-0.000633127 -0.000916775 -0.00399854)
(-0.00974299 -0.0100376 0.024449)
(-0.00992689 -0.0160773 0.00381433)
(-0.0150122 -0.00385908 0.00371213)
(0.0278544 0.0113411 -0.0281234)
(-0.00397915 0.000635412 0.015472)
(-0.0184251 0.00248066 0.0191455)
(0.000192379 0.00415617 -0.0181409)
(0.018638 -0.00510347 -0.0154158)
(-0.000244009 -0.00728962 0.00584931)
(0.0233007 -0.0108211 -0.00239208)
(0.0258671 0.00510857 -0.00519397)
(0.00626594 -0.0137218 0.0173709)
(0.00390616 -0.0248352 0.00697136)
(0.0163586 -0.00806957 0.00230663)
(0.00280518 0.0256602 -0.00234428)
(0.024426 0.0103975 -0.0285487)
(0.025541 0.00434084 -0.00876741)
(0.0169971 -0.0109091 -0.0246016)
(0.00136215 -0.00433405 2.56579e-05)
(0.0150105 -0.00525142 -0.00295765)
(-0.00229517 -0.00254019 0.0123594)
(-0.00300447 0.0122178 0.0103809)
(0.0129593 0.0198387 -0.0385047)
(0.0291815 -0.00673654 -0.0259255)
(0.0254397 -0.0273104 -0.000933922)
(0.0346086 -0.00679964 -0.000865156)
(0.04253 -0.0120641 -0.000291654)
(-0.00828202 0.0141037 -0.010207)
(-0.0146001 -0.00795861 0.0213)
(-0.00542259 0.00672727 0.0014273)
(-0.00795749 0.0125068 -0.0120126)
(0.0067146 0.0117557 -0.0123514)
(0.0050936 0.00644675 -0.00664662)
(0.0021217 -0.00157902 -0.0409474)
(-0.0108971 -0.00741961 -0.0278128)
(0.012001 0.0205339 -0.0393911)
(0.0124043 0.0139703 -0.013157)
(0.0156476 0.0123806 0.00249784)
(0.00956391 0.00292125 -0.00326646)
(-0.00291507 0.00384605 -0.0017475)
(0.00275537 -0.00785018 0.0099942)
(0.0106937 0.00038268 0.0191674)
(0.0313849 -0.00111673 0.00373721)
(-0.0183492 0.0298544 -0.0146353)
(-0.0136828 -0.00837043 0.0413864)
(-0.0130956 0.0198217 -0.0126928)
(-0.00773166 0.0157755 -0.00855306)
(0.0147756 0.0179504 -0.010665)
(0.00433674 0.0116282 0.00333781)
(-0.00791284 0.00295035 -0.0272718)
(-0.021746 0.00913656 -0.0124129)
(-0.00700465 0.00779956 -0.0363114)
(0.00207921 -0.00969335 -0.000835625)
(0.0176455 -0.0176701 -0.00158813)
(0.000616408 -0.029916 0.00593793)
(0.000984562 -0.0385509 0.0412553)
(-0.015381 -0.0298457 0.0503734)
(-0.018653 -0.00734437 0.0173376)
(0.00347607 -0.0133321 -0.00781759)
(-0.0128971 0.0198321 0.0203316)
(-0.0192578 0.0113712 0.0178175)
(-0.0400737 0.00764698 0.0228996)
(-0.0357904 0.012888 -0.00711851)
(-0.00153856 -0.032644 0.0316456)
(-0.0287547 -0.0085977 0.0253251)
(-0.0284157 0.011092 -0.00371217)
(-0.0240313 -0.00566542 0.00546884)
(0.00433833 -0.00693884 0.000931532)
(0.00462739 -0.00552956 0.00522332)
(0.000633157 0.0115073 -0.00123253)
(-0.00298898 0.0118874 -0.0100322)
(-0.00895933 0.0028951 0.0140391)
(-0.00811139 0.00599621 0.0292114)
(-0.00488541 -0.00638494 0.0288591)
(-0.00153684 0.0144581 -0.010194)
(-0.0101772 0.0216732 0.00192652)
(-0.028398 0.010529 0.0141608)
(-0.0378603 -0.0057241 0.0266912)
(-0.0286266 -0.00521597 0.000675976)
(0.0080366 -0.0283122 0.0258071)
(-0.00758313 0.0119166 -0.0143142)
(-0.0123783 0.026215 -0.0145088)
(-0.0162642 0.0011984 0.00611152)
(0.0144204 0.0145978 -0.0263907)
(0.0223318 0.00262093 -0.0258855)
(0.00539999 0.0040365 -0.0116374)
(0.00639994 -0.00230575 -0.010057)
(-0.00537058 -0.0256368 0.0238243)
(0.00350995 -0.000648951 0.00318637)
(0.0258294 0.000746762 -0.0195811)
(0.0113446 -0.00116688 0.00692885)
(0.00512797 0.0154536 -0.0062349)
(-0.0209366 0.018389 0.0102359)
(-0.0291832 0.00977125 0.0356584)
(-0.0214178 0.0187477 -0.0170797)
(-0.00144523 -0.0137773 0.0149037)
(0.0019164 0.00628112 -0.0207052)
(0.0153573 0.0180083 -0.0299476)
(0.0136707 -0.00472165 -0.0271004)
(0.00514442 0.001579 -0.014544)
(0.0105366 0.0072002 -0.0234375)
(0.00161964 0.0108315 -0.0227471)
(-0.00569061 0.00944489 -0.0232172)
(-0.00253553 0.00313031 0.00359516)
(0.00954413 0.030799 -0.0425911)
(0.0233024 0.024407 -0.0351343)
(-0.0033774 0.00223699 0.00274642)
(-0.00083766 0.0154945 -0.00661416)
(-0.0234585 0.00909801 0.00162804)
(-0.0154814 -0.0107001 0.0376028)
(-0.0110691 0.0151021 -0.0103984)
(-0.00629218 0.0215596 0.00548158)
(0.00763106 0.0363814 -0.0375689)
(0.00989512 0.0122236 -0.0124431)
(0.0164907 0.00451318 -0.0250164)
(0.000679451 0.00860899 -0.00815972)
(0.0153643 0.00771198 -0.0387596)
(0.026917 -0.00448603 -0.0119185)
(0.00348253 0.00269659 -0.0111762)
(0.00839976 0.00751149 -0.0140906)
(0.00348123 0.00549537 -0.000137421)
(0.0112924 3.90572e-05 -0.00608399)
(-0.00240188 -0.00384523 0.00824502)
(0.0178148 0.000245182 -0.0192742)
(-7.09889e-05 0.00831577 -0.00561289)
(-0.0140782 -0.00903461 0.027502)
(-0.0161499 0.0131044 -0.00649255)
(-0.0351193 0.0207274 0.0244466)
(-0.0121185 0.0208465 -0.016802)
(-0.0142493 0.0203799 0.000522132)
(0.00402229 -0.00146239 -0.000957072)
(-0.00162465 -0.0113038 0.00779698)
(0.0127225 -0.0182522 -0.0201285)
(0.0238408 -0.03014 -0.00320721)
(-0.000501208 -0.00525793 0.00478831)
(0.00596458 -0.00872703 0.0103086)
(-0.00602597 -0.00507141 0.00920102)
(-0.00377719 -0.00724212 -0.00768613)
(-0.000124791 -0.0096418 -0.00571903)
(0.0154036 0.00360063 -0.0226004)
(0.0105253 -0.0171731 -0.00170276)
(-0.00231403 -0.0248026 0.0202145)
(0.00284462 -0.00456535 -0.00494613)
(-0.0240905 0.00793151 0.0167176)
(-0.0124201 0.00600366 0.00552249)
(-0.0162388 -0.00166608 0.0113748)
(0.00522885 -0.0116165 0.00263512)
(-0.00592736 -0.0125828 0.00913156)
(0.00355845 -0.000493371 -0.00989028)
(0.0106484 -0.0223043 0.00854282)
(0.0194298 -0.00766104 -0.00786278)
(0.0118971 -0.0159242 0.022798)
(-0.0120025 0.0106448 0.00961128)
(-0.00553133 0.0130924 -0.00834642)
(-0.00200039 0.00119763 -0.0243406)
(-0.00589259 0.0219488 -0.0080654)
(-0.00111326 0.00338664 -0.0143292)
(-0.000459807 -0.0191412 0.0100758)
(0.0196972 -0.0195572 -0.00521807)
(0.00558159 -0.00125994 -0.0106073)
(0.0063311 -0.0075046 -0.00393868)
(-0.0078463 -0.0120902 0.0118724)
(-0.00507467 -0.0227985 0.018611)
(-0.0112951 -0.0011315 0.020159)
(-0.0111843 0.0120661 -0.0135671)
(-0.00809401 0.00878274 0.00846767)
(0.0252609 0.0056571 -0.0189975)
(0.0103704 -0.00515077 0.0106392)
(-6.07343e-05 -0.0123233 -0.00419615)
(0.025796 -0.0284679 -0.00771831)
(0.0189846 -0.0204511 -0.0198388)
(-0.00542066 -0.00191212 0.0136247)
(0.00686962 0.0196008 -0.0295013)
(-0.0138538 -0.000461484 0.00998539)
(0.0137982 -0.0146048 0.00481014)
(0.00410374 0.000586638 -0.005068)
(-0.00827632 0.000671354 -0.00710853)
(-0.0187322 0.0120446 0.0082943)
(-0.0224455 -0.00183048 0.0226707)
(-0.00611012 0.00884474 0.0186691)
(-0.00730508 0.0116382 -0.00861408)
(-0.0124715 0.00970229 0.00264197)
(0.00249926 0.0191906 -0.010981)
(-0.00192086 0.00576797 0.0077288)
(-0.00146467 0.0134529 -0.0182375)
(0.0211738 -0.0021614 -0.010837)
(0.0116596 -0.0282592 0.00727921)
(0.00504869 -0.03083 0.0158821)
(0.0136576 -0.00138871 -0.00997044)
(-0.0126352 -0.00764843 0.0202981)
(-0.00187463 -0.0175369 0.00296742)
(-0.000648518 -0.0121868 0.00180218)
(-0.00997517 0.0106234 -0.0156646)
(-0.023481 0.0241447 -0.00245737)
(-0.0207375 0.00524507 0.00436936)
(-0.0182536 0.00390381 0.0309757)
(-0.0193817 0.00585322 0.00322287)
(-0.0107106 0.0142134 -0.0133881)
(-0.0199493 0.0137455 0.0018366)
(-0.0258957 0.0108092 0.0195211)
(-0.0156166 0.00792445 0.0158261)
(-0.00375445 0.00763731 0.00331233)
(-0.00394711 -5.41648e-05 0.0179348)
(-0.00504238 -0.00823509 0.0222981)
(0.00525413 0.0010021 0.00309071)
(-0.0134434 0.00670108 0.0210676)
(-0.0117431 0.0103691 -0.0157)
(-0.0119299 0.0184506 -0.00154922)
(-0.0133705 0.00633141 0.0116701)
(-0.0221642 0.0148218 0.0130103)
(-0.0179698 -0.00078218 0.00324403)
(-0.0099279 -0.0048666 0.0168006)
(-0.0245264 0.00830944 0.00175319)
(-0.0203191 0.0167457 0.00177411)
(-0.0336824 0.00271715 0.0217763)
(-0.028929 -0.00925247 0.0431188)
(-0.014387 0.00481513 0.0215225)
(-0.0167922 -0.00817353 0.0415568)
(-0.0152323 -0.000971393 0.0153175)
(-0.0221167 -0.0266346 0.0407358)
(0.0102206 -0.00985971 -0.00969091)
(-0.0190574 0.0171563 0.000510507)
(-0.0311249 0.00912492 0.0148501)
(-0.0241451 0.00484793 0.0160917)
(-0.0175693 0.00164864 0.0164537)
(-0.0160571 0.00968913 0.0139384)
(-0.0160328 -0.00269481 0.00309778)
(0.0099852 -0.0156716 0.000360659)
(-0.0100421 -0.0121149 0.020911)
(-0.00885833 -0.00398007 0.000684993)
(-0.0323154 -0.0139807 0.0432055)
(-0.00687103 -0.0220913 0.030169)
(0.0114414 -0.0191626 0.0140235)
(0.0190139 -0.0205905 0.0169921)
(0.00548267 0.0190651 -0.0107191)
(-0.0026556 -0.0113177 0.0132917)
(0.0233664 -0.00473923 -0.0342167)
(-0.00120033 0.00433136 -0.00861574)
(-0.00407451 -0.0158222 0.020467)
(0.00964807 -0.0377424 0.022091)
(0.00651312 -0.053229 0.0306481)
(-0.00161192 -0.0245821 0.016002)
(-0.0152158 -0.0218761 0.0221904)
(0.0183504 -0.0068168 -0.0119514)
(-0.000317285 -0.0121292 0.0268886)
(0.000531981 -0.00576252 -0.0028995)
(-0.0187364 0.00261312 0.0163695)
(-0.000661619 0.0223511 -0.0134564)
(-0.00450566 0.00299903 0.00984234)
(0.00804267 0.00195361 0.00033355)
(0.00641103 0.0247692 -0.0148544)
(-0.00380702 0.00966069 0.0142006)
(0.0178237 -0.0214233 -0.0205706)
(-0.0278618 -0.0381255 0.0504546)
(-0.0254073 -0.0183273 0.0447704)
(0.00731367 -0.0186879 0.0190649)
(-0.00267534 -0.0253081 0.0399674)
(0.00850699 -0.0349875 0.0206123)
(-0.010927 -0.0236359 0.0268667)
(0.0220588 -0.0023237 -0.0165524)
(0.01159 -0.00768669 0.00191009)
(0.0138375 -0.00968481 -0.00407487)
(0.00710434 0.00508198 -0.00139446)
(0.0203587 -0.00929836 -0.012747)
(0.0128113 -0.0144722 0.0109678)
(0.00784332 -0.00890902 -0.00984436)
(0.0133141 0.0103848 -0.0142083)
(0.00521143 -0.0103808 0.0348155)
(0.0258593 -0.0233287 -0.0182837)
(-0.0119419 -0.0109108 0.0246063)
(-0.0114905 0.0255806 0.00323276)
(0.0298609 0.00249308 -0.0210093)
(0.00699243 -0.00715493 0.0113776)
(0.0134727 -0.0223123 0.00492222)
(-0.00552482 -0.0286723 0.0245702)
(-0.00465902 0.0135334 -0.0152043)
(0.00527021 0.00880047 -0.0188203)
(0.019708 0.00273009 -0.01744)
(0.0125244 0.026815 -0.0388647)
(0.0210109 0.00388769 -0.0241594)
(0.0126333 -0.0248375 0.0155606)
(0.00383084 0.00208549 0.00491705)
(0.00512565 -0.00562847 0.00211258)
(-0.0175609 0.0145108 0.0240971)
(-0.00642488 -0.0112121 -0.000550971)
(-0.0278209 -0.00193132 0.0249245)
(-0.0222413 0.00671384 0.00372169)
(-0.000574553 0.00521263 -0.0001373)
(-0.0207986 0.00360845 0.00815146)
(-0.00120934 0.00251288 -0.0188471)
(-0.0242934 -0.0117353 -0.00762897)
(-0.00643426 0.0293036 -0.0654377)
(0.00339587 0.0218645 -0.0329394)
(0.0160235 0.00687551 -0.0118313)
(-0.00226542 -0.00438464 0.00213064)
(-0.00559268 -0.00190881 0.00988339)
(-0.0139019 -0.0119615 0.0290526)
(-0.0141346 0.00445094 0.019806)
(-0.00613076 0.0127426 -0.00396448)
(-0.0275595 0.0372218 0.0102657)
(-0.00996305 -0.00349581 0.0187867)
(-0.0291804 0.0158072 0.00340068)
(-0.0284645 0.0170882 -0.00762944)
(-0.00711279 0.0175292 -0.00349313)
(-0.029033 0.0102402 0.0231187)
(-0.0160103 0.00399848 0.00306424)
(-0.0263525 -0.00349989 -0.00624371)
(0.0113845 -0.0134267 -0.0439461)
(0.0133669 -0.0201714 0.00131484)
(0.0115475 -0.0140075 -0.0102695)
(-0.00925987 -0.0184537 0.00501979)
(0.00147792 -0.0239494 0.014829)
(-0.013783 -0.0261163 0.0473797)
(-0.0106938 -0.0195368 0.0211686)
(0.0238272 -0.0242342 -0.00469369)
(-0.0137768 0.0126991 0.0234231)
(-0.0555355 0.0223174 0.0405483)
(-0.0187944 0.0115008 0.0142438)
(-0.0113999 0.0164659 -0.0275539)
(0.00993467 -0.0296424 -0.00319)
(-0.0200763 -0.00296173 0.0231709)
(-0.0296144 0.0284751 -0.011431)
(0.00234326 -0.000423708 -0.0141621)
(0.00380834 -0.00946174 -0.0055876)
(-0.000741839 -0.0114604 0.00834581)
(-0.00201366 0.0151264 -0.014508)
(-0.00567044 0.0178696 -0.0180045)
(-0.00380276 0.0131763 -0.00616816)
(-0.00821203 -0.0129777 0.0368933)
(-0.00402693 -0.0332912 0.0437861)
(0.0123995 0.0074786 -0.00499983)
(-0.00717819 0.0141444 0.00398991)
(-0.0437916 0.0147648 0.0201434)
(-0.000380287 -0.00597507 0.0096938)
(-0.00163378 0.0126923 -0.0167543)
(0.00737395 -0.00935126 -0.00104878)
(-0.0142205 0.0131257 0.00363953)
(-0.0206211 0.0202846 -0.0036373)
(-0.0147161 0.00657538 0.0137366)
(-0.00587189 0.024487 -0.0255824)
(-0.00461069 0.00595408 -0.0105228)
(-0.0167128 0.00534284 -0.00778176)
(-0.00776328 0.00138257 -0.0123092)
(-0.0120616 -0.0125581 0.0187412)
(-0.0131266 -0.010621 0.0249724)
(-0.00339683 -0.00485436 -0.00120305)
(0.0136629 0.00899893 -0.000950087)
(0.00152492 0.0100724 0.00308741)
(-0.0347134 0.0149006 0.0135298)
(0.0140664 -0.00510955 0.00327218)
(0.0110157 0.0137366 -0.0338638)
(-0.00508661 -0.00342786 -0.00753397)
(-0.0137923 0.00827752 -0.00117984)
(0.00063067 0.0288917 -0.0211059)
(-0.0109785 0.00669356 -0.00296298)
(-0.00290084 -0.0057749 -0.0153018)
(0.00286963 0.00437415 -0.0206986)
(-0.00249848 0.000586556 -0.0270025)
(0.00521182 0.00667108 -0.0485338)
(0.00504161 0.00164187 -0.00779471)
(0.00774498 0.0251444 -0.0316284)
(-0.00343259 0.0235973 -0.0101318)
(-0.0028492 0.0142934 0.00163323)
(0.00374589 0.0110079 0.000464778)
(-0.0239739 0.0127228 -0.0049426)
(0.0280266 -0.0158792 -0.00385985)
(0.0428482 0.00344742 -0.0480852)
(0.0211984 0.0065135 -0.0266662)
(0.00197428 0.0146272 -0.0182893)
(-0.00879745 0.0132899 0.00468076)
(-0.0106893 -0.000799065 -0.00935229)
(0.0089002 0.0175808 -0.0298788)
(0.0084739 0.0166022 -0.0462053)
(0.00663502 0.0122279 -0.0256149)
(0.000504629 0.0169564 -0.0509553)
(0.00813688 0.00580508 -0.0176451)
(0.00566256 0.0132731 -0.00151324)